# vtk DataFile Version 2.0
Test structured points set
ASCII
DATASET STRUCTURED_POINTS
DIMENSIONS 5 5 5
ORIGIN 0.0 0.0 0.0
ASPECT_RATIO 1.0 1.0 1.0

POINT_DATA 125
SCALARS scalars unsigned_short
LOOKUP_TABLE default

  0   0   5   0   0
  0  50 100  50   0
  5 100 150 100 111
  0  50 100  50 111
  0   0   5   0   0

  0  50 100  50   0
 50 100 150 111 111
100 150 200 111 111
 50 100 150 100 111
  0  50 100  50   0

 50 100 150 100  50
100 150 200 150 100
150 200 255 200 150
100 150 200 150 100
 50 100 150 100  50

  0  50 100  50   0
 50 100 150 100  50
100 150 200 150 100
 50 100 150 100  50
  0  50 100  50   0

  0   0   5   0   0
  0  50 100  50   0
  5 100 150 100   5
  0  50 100  50   0
  0   0   5   0   0
