# vtk DataFile Version 2.0
Test structured points set
ASCII
DATASET STRUCTURED_POINTS
DIMENSIONS 3 2 1
ORIGIN 0.0 0.0 0.0
ASPECT_RATIO 1.0 1.0 1.0

POINT_DATA 6
TENSORS tensors float
1 0 0
0 1 0
0 0 1

2 1 3
1 2 2
3 2 1

1 2 3
2 5 6
3 6 4

0 1 2
1 0 0
2 0 0

0.2 0.3 0.2
0.3 0.6 2.2
0.2 2.2 1.0

3.14 15 1
15   0  0
1    0  2
